ITEM: TIMESTEP
                   0
ITEM: NUMBER OF ATOMS
       100
ITEM: BOX BOUNDS pp pp pp
  0.0000000E+00   0.4308870E+02
  0.0000000E+00   0.4308870E+02
  0.0000000E+00   0.4308870E+02
ITEM: ATOMS id mol xu yu zu
   1    1       6.0454375      -1.4474225     -61.8082400
   2    2      -7.2175175      12.5871475      28.4368650
   3    3      59.4173225      21.8430250      -3.8892725
   4    4     -24.9516575      31.4270825     -21.2300575
   5    5      24.8992950      24.1528575     -32.5875400
   6    6     -22.7746500      31.3056325     -64.0230500
   7    7      20.1484800      47.6500425      11.0434900
   8    8      -9.6639400      39.8859175     -74.4185025
   9    9      49.0745150      31.9703850     -30.9196375
  10   10      68.9787375      -2.0406000      19.1578200
  11   11      18.0297875       1.4662450      22.8163350
  12   12      20.8979125      34.7544375       1.0065400
  13   13      10.3661600      55.3369175     -28.7576350
  14   14      13.6109550     -25.2505675     -40.1313550
  15   15      45.1802900     -29.2521450      27.8950775
  16   16      41.8524375      54.0839250     -48.0005625
  17   17       2.2250500      70.0058250     -36.2959475
  18   18       8.2055800      38.7439925       0.1046150
  19   19      60.6476750      14.2237675     121.2651450
  20   20     135.9410025      44.4696825       7.2063850
  21   21      40.9502850     -44.3673150      -0.6287650
  22   22      46.5545275       9.7827425     -72.3411550
  23   23     -47.0345050      51.1762925     -36.3028100
  24   24       6.6581350       0.1723350     -30.7912075
  25   25     -29.9195950      77.4221625      36.1759025
  26   26      23.5378025      19.0948175      86.5088375
  27   27      67.1938575      27.1351675      43.9302900
  28   28      27.8232350     -24.7501750      33.4898125
  29   29      24.3847825     -69.9602350      58.7130375
  30   30      89.1777250      70.5281525     -25.3899100
  31   31       0.5447775      78.4183150      39.2454750
  32   32      82.0639175      29.7018275      -6.7824300
  33   33       5.7596525       5.0288450      31.1565475
  34   34     108.3697050      -0.5770850       5.8901950
  35   35      93.6753250      14.0273875       4.9006075
  36   36      -2.3081725      29.0104625     -19.0335525
  37   37     -39.9856775      34.5421650      36.0081400
  38   38      23.3733525      53.3925250     -13.7365375
  39   39     -23.8138500      33.7714100      57.2230675
  40   40      87.8158025      -0.8548300      59.6698000
  41   41      37.4860950      29.0231275      23.9320875
  42   42     -23.9841000     112.9865025     -12.8486575
  43   43      25.7901425     132.1038000      -2.8887575
  44   44     -23.2889050       2.6741675      25.3075925
  45   45      45.0202875      17.5846825      41.1577900
  46   46       5.3928450      21.5810975      32.8431625
  47   47      38.7075200      30.9863600     114.2625775
  48   48       1.3535850      64.0860500      50.1300800
  49   49     -33.6065875       2.9348900       3.3899250
  50   50      -2.2538925      49.5670725     -24.9447275
  51   51     -45.3730150     -67.5644050       2.4338225
  52   52      24.2997250     -24.8586175      60.8374800
  53   53      19.7896650     -54.4196050       1.6371650
  54   54      57.2049275      -9.5597125      44.3460700
  55   55      40.2661425     -35.1182950      72.7670050
  56   56      42.0263900      70.5190700      26.1630325
  57   57      30.2317900      16.0331050      29.3655450
  58   58     -63.3431775      79.6082650      95.0104025
  59   59     -19.9946250      33.5205275     -24.3769250
  60   60      35.0067975     -62.2527800      11.4610900
  61   61      -4.5582725      56.3096150     -30.3101975
  62   62     -53.6749050      81.8522675      74.9042450
  63   63      49.4696900      -8.5143850       7.2446625
  64   64     111.2355675      38.7201500     -52.1892475
  65   65      62.1192475      69.5029900      88.2916525
  66   66     -53.0391875      35.8110600     126.6216550
  67   67     -23.2878100      20.2671850      25.3221200
  68   68      47.0466925       7.4298350      19.6397025
  69   69     -87.9081125      37.6432275      68.8080550
  70   70      27.5606175     -16.8522525      53.1396525
  71   71      34.9893500      53.6405350      56.5713850
  72   72      -2.6095600      31.7111125      35.9068525
  73   73      27.1494125      29.5485650      34.6070050
  74   74      21.2223000     -28.1980875     -65.1584950
  75   75     -34.6569375       2.3519275      83.5665925
  76   76     -24.7992875       0.9566525     -22.5605925
  77   77      25.2079375     -36.2432350      94.0344500
  78   78      33.3270175    -103.5355650      84.2973400
  79   79      27.9854475      20.3369700       5.9694825
  80   80      62.3266700      11.0497925      21.4643500
  81   81      21.2464950      11.5281700      -0.7280350
  82   82      43.5173700     -62.7079300     128.7935025
  83   83      71.3810400     -16.6106975      91.2706100
  84   84     179.4889750     -22.7191125      18.4202500
  85   85      31.8350950       5.2768225      -7.7312650
  86   86     -17.4599325      20.8289200      44.0348250
  87   87      46.9779750      -3.7537825      26.3537350
  88   88      10.3623875      64.3587850      42.6622050
  89   89      35.6319375     101.7321975      35.3095125
  90   90     139.6158025      92.3634150     -26.2194000
  91   91     -58.7079325     -36.6393225      25.5928950
  92   92      -4.1096200      28.1989375      84.7527250
  93   93      18.1296500       4.4314975      54.1798875
  94   94      15.3952350      73.8370250      24.4675150
  95   95      39.1622350       3.3989350      44.3103475
  96   96     -32.9136775      47.3628625      -7.4414800
  97   97      11.4066950      66.4317575      25.9534550
  98   98      12.9116700      77.4365675     144.0212225
  99   99      74.9411550      95.7755300      19.0672675
 100  100      -5.6580750       2.6817675      19.5538200
ITEM: TIMESTEP
                   1
ITEM: NUMBER OF ATOMS
       100
ITEM: BOX BOUNDS pp pp pp
  0.0000000E+00   0.4308870E+02
  0.0000000E+00   0.4308870E+02
  0.0000000E+00   0.4308870E+02
ITEM: ATOMS id mol xu yu zu
   1    1       6.3248766      -1.3558325     -61.9334868
   2    2      -7.1716940      12.3499961      28.3767510
   3    3      59.3108915      21.9436009      -3.8928861
   4    4     -24.8904000      31.5640257     -20.8147223
   5    5      24.8992950      24.1528575     -32.5875400
   6    6     -22.6593805      31.2060330     -64.0959120
   7    7      20.0879834      47.7485285      11.1226037
   8    8      -9.6732460      39.7452665     -74.2825040
   9    9      48.8447297      31.9676020     -30.6523550
  10   10      69.1467568      -1.9234190      19.1441242
  11   11      18.2647961       1.4453895      22.8966265
  12   12      20.9789665      34.7138773       0.8797264
  13   13      10.2744536      55.2850847     -28.5842740
  14   14      13.5087961     -25.2557862     -40.1795647
  15   15      45.3024443     -29.5494353      28.0462235
  16   16      42.1197182      54.2416900     -48.0789737
  17   17       2.4734985      69.7987000     -36.2828860
  18   18       8.3656653      38.6758330       0.4242347
  19   19      60.9533980      14.3693466     121.2656475
  20   20     136.0498800      44.5192838       7.2685145
  21   21      41.0435290     -44.5428878      -0.5389717
  22   22      46.5545275       9.7827425     -72.3411550
  23   23     -47.1947630      51.1535203     -36.2832523
  24   24       6.6581350       0.1723350     -30.7912075
  25   25     -29.8944555      77.3376860      36.2533833
  26   26      23.5378025      19.0948175      86.5088375
  27   27      67.1938575      27.1351675      43.9302900
  28   28      27.7804007     -24.7734593      33.6867075
  29   29      24.3392803     -69.9022560      58.8053185
  30   30      89.2785205      70.3211625     -25.1513072
  31   31       0.5084178      78.2766068      39.1891632
  32   32      82.0639175      29.7018275      -6.7824300
  33   33       5.7352587       4.9327019      31.2848207
  34   34     107.9775795      -0.3874010       6.0863972
  35   35      93.6772042      14.2478593       4.8384608
  36   36      -2.0572843      28.8859945     -18.9533164
  37   37     -39.8278787      34.3775520      36.1826800
  38   38      23.4366517      53.4887780     -13.8698677
  39   39     -23.9509127      33.8136273      57.0565555
  40   40      87.8158025      -0.8548300      59.6698000
  41   41      37.4297050      29.0844950      24.0451607
  42   42     -24.1717140     112.9254045     -12.8057581
  43   43      25.7030568     132.1078500      -2.8313680
  44   44     -23.1944820       2.6520924      25.3335312
  45   45      45.0692820      17.3782131      40.9789138
  46   46       5.5432199      21.6082533      32.8461580
  47   47      38.7926248      30.8269140     114.2931375
  48   48       1.5174479      64.4368728      50.1178370
  49   49     -33.5329945       3.0090871       3.6225543
  50   50      -2.0559808      49.8031022     -24.7708452
  51   51     -45.7058855     -67.5153570       2.6463909
  52   52      24.5558366     -24.8248452      60.9062273
  53   53      19.7666932     -54.4288307       1.8740525
  54   54      57.1111245      -9.5006680      44.4673702
  55   55      40.1570355     -35.4506733      72.9646137
  56   56      41.9219990      70.3690065      26.0703951
  57   57      30.3436912      15.9988450      29.1527813
  58   58     -63.3114887      79.6611320      94.7909530
  59   59     -19.9535597      33.3888993     -24.1163323
  60   60      35.3239305     -62.0717358      11.6819437
  61   61      -4.2470791      56.5891890     -30.1212755
  62   62     -53.6936990      82.0327575      74.6678123
  63   63      49.3358548      -8.5558329       7.4045576
  64   64     111.2047595      38.7296222     -52.1458833
  65   65      62.1192475      69.5029900      88.2916525
  66   66     -53.0391875      35.8110600     126.6216550
  67   67     -22.9533995      20.3830348      25.2458257
  68   68      47.1083632       7.2652941      19.7137394
  69   69     -87.9081125      37.6432275      68.8080550
  70   70      27.5397283     -17.1531912      53.2772668
  71   71      35.1942812      53.8059048      56.6952780
  72   72      -2.6095600      31.7111125      35.9068525
  73   73      27.2679895      29.6586242      34.7286190
  74   74      21.0608990     -27.9496215     -65.1823928
  75   75     -34.5249310       2.2477845      83.5147797
  76   76     -24.6183643       1.0341758     -22.3073318
  77   77      25.3199260     -36.1628255      94.1979617
  78   78      33.3270175    -103.5355650      84.2973400
  79   79      27.9854475      20.3369700       5.9694825
  80   80      62.3266700      11.0497925      21.4643500
  81   81      21.6332975      11.6713120      -0.6799400
  82   82      43.5173700     -62.7079300     128.7935025
  83   83      71.3810400     -16.6106975      91.2706100
  84   84     179.6823650     -22.5869320      18.3750984
  85   85      31.7363500       5.2002077      -7.5835424
  86   86     -17.4599325      20.8289200      44.0348250
  87   87      47.1222370      -3.6649447      26.3291722
  88   88      10.4826068      64.3403315      42.8429880
  89   89      36.0602815     101.5549198      35.3890420
  90   90     139.6158025      92.3634150     -26.2194000
  91   91     -58.7079325     -36.6393225      25.5928950
  92   92      -4.1096200      28.1989375      84.7527250
  93   93      17.9889977       4.5475889      54.2764607
  94   94      15.4198346      74.2138167      24.8752383
  95   95      39.2961643       3.5611302      44.4624580
  96   96     -32.7905250      47.0360925      -7.6811724
  97   97      11.6648731      66.5803122      25.9980525
  98   98      12.9613646      77.4230847     144.2361400
  99   99      74.9327512      96.0217730      19.2933324
 100  100      -5.7015176       2.7781793      19.5328510
ITEM: TIMESTEP
                   2
ITEM: NUMBER OF ATOMS
       100
ITEM: BOX BOUNDS pp pp pp
  0.0000000E+00   0.4308870E+02
  0.0000000E+00   0.4308870E+02
  0.0000000E+00   0.4308870E+02
ITEM: ATOMS id mol xu yu zu
   1    1       6.5428640      -1.2851534     -61.9649513
   2    2      -6.9759734      12.4466213      28.0722963
   3    3      59.4183955      21.7034276      -3.9179529
   4    4     -24.8417815      31.5515665     -20.7456293
   5    5      24.8992950      24.1528575     -32.5875400
   6    6     -22.4802267      31.3319780     -64.0012835
   7    7      20.0448914      48.0008220      11.2072128
   8    8     -10.0829483      39.7971143     -74.2291595
   9    9      48.5390880      32.2217683     -30.8110887
  10   10      68.8775915      -1.8211187      19.0014488
  11   11      18.1492402       1.4760575      23.2913133
  12   12      20.8870935      34.7478158       0.8138346
  13   13      10.6818687      55.2143430     -28.7336287
  14   14      13.4577362     -25.3275710     -40.1305520
  15   15      44.9263015     -29.9493585      27.8061457
  16   16      42.1388448      54.3880203     -47.8853257
  17   17       2.4610555      69.7284180     -36.3596925
  18   18       8.2942577      38.8563120       0.2047114
  19   19      60.9987638      14.2900383     121.5182350
  20   20     136.2062625      44.6110162       7.2259453
  21   21      41.1055490     -44.6363670      -0.5881766
  22   22      46.5545275       9.7827425     -72.3411550
  23   23     -47.3011875      51.0642125     -36.2931025
  24   24       6.6581350       0.1723350     -30.7912075
  25   25     -30.0057527      77.3086248      36.5054195
  26   26      23.5378025      19.0948175      86.5088375
  27   27      67.1938575      27.1351675      43.9302900
  28   28      27.7642618     -24.7292808      33.7083210
  29   29      24.1699587     -70.0721345      58.6485632
  30   30      89.4793915      70.4588650     -25.2604805
  31   31       0.7238535      78.2109593      39.0710997
  32   32      82.0639175      29.7018275      -6.7824300
  33   33       5.4250015       4.5587837      31.2012417
  34   34     107.8726340      -0.3847853       6.2997212
  35   35      93.7464165      14.2023980       4.6518751
  36   36      -2.1671898      28.9198533     -18.7489239
  37   37     -39.8433445      34.5693857      35.8485527
  38   38      23.1658272      53.5513995     -13.4318680
  39   39     -23.7909848      34.0423855      56.8708882
  40   40      87.8158025      -0.8548300      59.6698000
  41   41      37.6670113      29.0103027      23.8575213
  42   42     -24.4075452     112.7404950     -12.7981571
  43   43      25.6566232     132.0273150      -2.8338455
  44   44     -23.0344247       2.6647638      25.5348471
  45   45      45.0410413      17.4416106      41.0168065
  46   46       5.6832931      21.1460652      32.8649360
  47   47      38.8932065      30.5186252     114.1828550
  48   48       1.3188218      64.4391683      50.0478970
  49   49     -33.4470308       2.8110022       3.6698485
  50   50      -2.0709527      49.7844365     -24.8537055
  51   51     -45.7049555     -67.5398280       2.4362114
  52   52      24.4894789     -24.7071108      60.9700747
  53   53      19.8063822     -54.4131815       1.7670356
  54   54      57.0859067      -9.0373238      44.3782550
  55   55      39.9031288     -35.1988895      72.9593868
  56   56      41.8491303      70.4367935      25.6935789
  57   57      30.4412210      16.0211610      29.0333215
  58   58     -63.2189492      79.7040993      94.7644943
  59   59     -19.9264766      33.4796680     -23.8936223
  60   60      35.3509175     -62.0493180      11.6920840
  61   61      -4.3112671      56.5132420     -30.1283793
  62   62     -53.8638980      82.0222870      75.0748840
  63   63      49.2155672      -8.5739716       7.3380822
  64   64     111.1291800      38.6202933     -51.8226950
  65   65      62.1192475      69.5029900      88.2916525
  66   66     -53.0391875      35.8110600     126.6216550
  67   67     -22.8529568      20.2907559      25.3731227
  68   68      47.1085377       6.9687143      19.6429028
  69   69     -87.9081125      37.6432275      68.8080550
  70   70      27.4011480     -17.2344042      53.2103912
  71   71      35.1271790      53.7870672      56.7650343
  72   72      -2.6095600      31.7111125      35.9068525
  73   73      27.2589207      29.7933257      34.8583952
  74   74      21.1665247     -27.9303216     -65.1108072
  75   75     -35.0131960       2.2545068      83.5026092
  76   76     -24.8613353       0.9981105     -22.0260887
  77   77      25.3183373     -36.1715175      94.1175980
  78   78      33.3270175    -103.5355650      84.2973400
  79   79      27.9854475      20.3369700       5.9694825
  80   80      62.3266700      11.0497925      21.4643500
  81   81      21.6847740      11.5955135      -0.8052035
  82   82      43.5173700     -62.7079300     128.7935025
  83   83      71.3810400     -16.6106975      91.2706100
  84   84     180.0457725     -22.5501368      18.2569493
  85   85      31.4629660       5.3057859      -7.6672857
  86   86     -17.4599325      20.8289200      44.0348250
  87   87      47.0406957      -3.8984396      26.2994082
  88   88      10.5067848      64.3627800      42.7150363
  89   89      35.8697148     101.3760433      35.6456097
  90   90     139.6158025      92.3634150     -26.2194000
  91   91     -58.7079325     -36.6393225      25.5928950
  92   92      -4.1096200      28.1989375      84.7527250
  93   93      17.8904171       4.6868010      54.4104837
  94   94      15.5273059      74.1438232      24.7470697
  95   95      39.1493703       3.5241012      44.3464472
  96   96     -32.9633730      47.0543815      -7.8328677
  97   97      11.5306929      66.2292957      25.8740713
  98   98      13.0078058      77.4108835     143.8320625
  99   99      74.9896440      96.1654348      19.0478505
 100  100      -5.7120264       2.3203402      19.5956305
ITEM: TIMESTEP
                   3
ITEM: NUMBER OF ATOMS
       100
ITEM: BOX BOUNDS pp pp pp
  0.0000000E+00   0.4308870E+02
  0.0000000E+00   0.4308870E+02
  0.0000000E+00   0.4308870E+02
ITEM: ATOMS id mol xu yu zu
   1    1       6.5384730      -1.4239157     -62.0618405
   2    2      -7.0611773      12.7229050      28.0779132
   3    3      59.1270937      21.7688694      -3.8969450
   4    4     -24.7573533      31.3798030     -20.6601708
   5    5      24.8992950      24.1528575     -32.5875400
   6    6     -22.7063052      31.2067662     -64.0957970
   7    7      20.0144311      47.8639140      10.9963217
   8    8     -10.1961129      40.0525505     -74.1280453
   9    9      48.8473348      32.0262735     -30.5170092
  10   10      69.1593317      -1.8829744      18.5485206
  11   11      18.2334922       1.5151418      23.0890562
  12   12      20.8084285      34.6862937       0.8386901
  13   13      10.8478377      55.3296595     -28.4875625
  14   14      13.5258831     -25.3062598     -40.2421393
  15   15      45.0044930     -29.9266950      28.1921055
  16   16      42.0399455      54.5703238     -47.6630183
  17   17       2.2499909      69.8189170     -36.3673203
  18   18       8.3973403      38.5861445       0.3170302
  19   19      60.9398895      14.3441770     121.5296800
  20   20     136.2080525      44.8836655       7.5364584
  21   21      40.8134873     -44.7080375      -0.3788138
  22   22      46.5545275       9.7827425     -72.3411550
  23   23     -47.1082300      51.1237810     -35.9452450
  24   24       6.6581350       0.1723350     -30.7912075
  25   25     -30.0865760      77.1091968      36.4664397
  26   26      23.5378025      19.0948175      86.5088375
  27   27      67.1938575      27.1351675      43.9302900
  28   28      27.6991940     -24.7231610      33.7635348
  29   29      23.8780147     -70.0206773      58.6123528
  30   30      89.3764285      70.3855828     -25.3372475
  31   31       0.8636659      78.2744820      39.0567792
  32   32      82.0639175      29.7018275      -6.7824300
  33   33       5.2310605       4.3525754      31.2499532
  34   34     107.9740003      -0.4454108       6.1153849
  35   35      93.6731070      14.2776103       4.8631909
  36   36      -2.2770083      28.7253970     -18.7831554
  37   37     -39.9244197      34.6107730      35.9948905
  38   38      23.1335960      53.5758633     -13.4793686
  39   39     -23.8171360      34.1388105      56.8378933
  40   40      87.8158025      -0.8548300      59.6698000
  41   41      37.8575082      29.0456732      23.9813930
  42   42     -24.4918275     112.7151033     -12.8234611
  43   43      25.8377567     131.8986350      -2.7225287
  44   44     -22.8849795       2.6597342      25.3083272
  45   45      44.7006610      17.1818564      40.8737712
  46   46       5.4424374      21.2325788      32.8262538
  47   47      38.8155038      30.6156870     114.2810700
  48   48       1.2506464      64.2218043      50.1211218
  49   49     -33.3840660       2.7523254       3.6954256
  50   50      -1.9481519      49.7657395     -24.6593517
  51   51     -45.6107940     -67.5490812       2.3797499
  52   52      24.5581309     -24.7336740      60.8318030
  53   53      19.7813969     -54.5418312       1.9031654
  54   54      57.1756670      -9.2796180      44.3867395
  55   55      39.7800080     -35.1661405      72.9661925
  56   56      42.1391685      70.3575730      25.6325085
  57   57      30.6149875      16.1874577      29.0304643
  58   58     -63.3571408      79.6476943      94.6086135
  59   59     -19.9301879      33.5261977     -24.0462905
  60   60      35.4295012     -62.1104260      11.6155420
  61   61      -4.2995021      56.4214893     -30.1031325
  62   62     -53.7682730      82.1059342      75.0253342
  63   63      49.4250467      -8.6381168       7.6080234
  64   64     111.2081925      38.6813607     -51.9603298
  65   65      62.1192475      69.5029900      88.2916525
  66   66     -53.0391875      35.8110600     126.6216550
  67   67     -22.9007868      20.5717467      25.4248348
  68   68      47.0539133       6.8963875      19.4735206
  69   69     -87.9081125      37.6432275      68.8080550
  70   70      27.4088710     -17.3110086      53.0070473
  71   71      35.0883202      53.6974542      56.8696620
  72   72      -2.6095600      31.7111125      35.9068525
  73   73      27.3027541      29.6065580      34.8860228
  74   74      21.2301303     -27.7443638     -65.1265362
  75   75     -35.2322725       2.3242044      83.5914478
  76   76     -24.7196395       0.8767889     -22.3807294
  77   77      25.3278350     -36.0690738      93.6832270
  78   78      33.3270175    -103.5355650      84.2973400
  79   79      27.9854475      20.3369700       5.9694825
  80   80      62.3266700      11.0497925      21.4643500
  81   81      21.6608848      11.5474067      -0.9677633
  82   82      43.5173700     -62.7079300     128.7935025
  83   83      71.3810400     -16.6106975      91.2706100
  84   84     179.7866975     -22.4998860      18.5266896
  85   85      31.6169520       5.4093804      -7.8775051
  86   86     -17.4599325      20.8289200      44.0348250
  87   87      46.9745850      -3.8245259      26.5994628
  88   88      10.4885335      64.4139882      42.9049450
  89   89      35.8774410     101.3020045      35.5435825
  90   90     139.6158025      92.3634150     -26.2194000
  91   91     -58.7079325     -36.6393225      25.5928950
  92   92      -4.1096200      28.1989375      84.7527250
  93   93      17.9257274       4.5885535      54.3688945
  94   94      15.5191309      73.8609238      24.6837837
  95   95      39.0215335       3.5399248      44.5142078
  96   96     -33.1796115      47.0812145      -7.7247991
  97   97      11.6850865      66.5158653      25.6141130
  98   98      13.2640149      77.4375390     143.7545775
  99   99      74.9268308      96.2745663      19.0691040
 100  100      -5.4433617       2.3742529      19.6790682
ITEM: TIMESTEP
                   4
ITEM: NUMBER OF ATOMS
       100
ITEM: BOX BOUNDS pp pp pp
  0.0000000E+00   0.4308870E+02
  0.0000000E+00   0.4308870E+02
  0.0000000E+00   0.4308870E+02
ITEM: ATOMS id mol xu yu zu
   1    1       6.7406609      -1.1340435     -61.6299715
   2    2      -6.9851520      12.6176032      28.1742320
   3    3      59.2353198      21.9544536      -4.0625866
   4    4     -24.9454633      31.5838717     -20.8981340
   5    5      24.8992950      24.1528575     -32.5875400
   6    6     -22.6486787      30.9509850     -64.2108500
   7    7      20.1683866      48.0033850      10.8414435
   8    8     -10.2135239      40.2031450     -74.0066568
   9    9      48.8326940      32.0511960     -30.4223025
  10   10      69.2830555      -2.1367981      18.6998967
  11   11      18.3709582       1.4645793      22.8961097
  12   12      20.7320427      34.7241877       0.8021336
  13   13      10.6291459      55.3406503     -28.4604627
  14   14      13.5793360     -25.2057257     -40.2931260
  15   15      44.9622163     -29.9479232      28.1999132
  16   16      42.1689493      54.5949327     -47.7249650
  17   17       2.1373508      69.6835525     -36.2109395
  18   18       8.6656859      38.6799970       0.2266339
  19   19      60.9981307      14.5403618     121.4508300
  20   20     136.3402925      44.9132495       7.4340715
  21   21      40.7875582     -44.6236250      -0.2559472
  22   22      46.5545275       9.7827425     -72.3411550
  23   23     -46.9236880      51.0574060     -36.0813040
  24   24       6.6581350       0.1723350     -30.7912075
  25   25     -29.6837528      77.6416542      36.6632748
  26   26      23.5378025      19.0948175      86.5088375
  27   27      67.1938575      27.1351675      43.9302900
  28   28      27.9487087     -24.5116200      33.6748910
  29   29      24.0881047     -69.7514233      58.6416790
  30   30      88.9911433      70.3661523     -25.3446270
  31   31       0.8215977      78.2449803      39.0031855
  32   32      82.0639175      29.7018275      -6.7824300
  33   33       5.5965828       4.7312629      31.5248800
  34   34     108.2607263      -0.0425709       6.1711967
  35   35      93.7040173      14.2006228       4.8716778
  36   36      -2.2299771      28.8484885     -18.9340011
  37   37     -39.8304718      34.7993540      35.9177517
  38   38      23.5081407      53.8666588     -13.8641353
  39   39     -23.9447182      34.2042282      56.9733055
  40   40      87.8158025      -0.8548300      59.6698000
  41   41      37.7887420      29.2427322      23.9842645
  42   42     -24.7890310     112.6743125     -12.8359217
  43   43      26.2063682     131.9143375      -2.5882839
  44   44     -22.6799567       2.6595695      24.8657719
  45   45      44.9488730      17.1497869      40.9564298
  46   46       5.4838476      21.3774415      33.0351908
  47   47      39.0374425      30.6182542     114.3441550
  48   48       1.4298151      64.3231315      50.1821313
  49   49     -33.1962045       2.9013071       3.7099255
  50   50      -2.0459574      49.5876065     -24.7602097
  51   51     -45.4018313     -67.9114660       2.3725239
  52   52      24.5622814     -24.7357747      60.8852940
  53   53      19.7584938     -54.3386655       1.6569640
  54   54      57.0993893      -9.4905543      44.5623707
  55   55      39.8738082     -35.1578893      73.0110067
  56   56      42.1267543      70.5504948      25.6537395
  57   57      30.3914053      15.8782072      29.0914597
  58   58     -63.2035807      79.6149560      94.7078945
  59   59     -19.9323511      33.7011675     -23.9001893
  60   60      35.3062902     -62.4227600      11.3699469
  61   61      -4.2451085      56.4237677     -30.1545237
  62   62     -53.5913497      82.2173080      74.9905525
  63   63      49.4299095      -8.6089746       7.3694329
  64   64     111.1199665      38.5255710     -52.0406453
  65   65      62.1192475      69.5029900      88.2916525
  66   66     -53.0391875      35.8110600     126.6216550
  67   67     -22.9743275      20.4347410      25.5234045
  68   68      47.3430447       6.8650933      19.6439542
  69   69     -87.9081125      37.6432275      68.8080550
  70   70      27.2712797     -17.0299739      53.0882607
  71   71      35.1788397      53.6392958      56.6948113
  72   72      -2.6095600      31.7111125      35.9068525
  73   73      27.1536572      29.5947290      34.9451350
  74   74      21.0505420     -27.7307534     -65.3658385
  75   75     -34.8433090       2.1463992      83.3629425
  76   76     -24.4696665       0.7988116     -22.9317900
  77   77      25.5635933     -35.8754112      93.6642038
  78   78      33.3270175    -103.5355650      84.2973400
  79   79      27.9854475      20.3369700       5.9694825
  80   80      62.3266700      11.0497925      21.4643500
  81   81      21.7166011      11.5832952      -0.9245413
  82   82      43.5173700     -62.7079300     128.7935025
  83   83      71.3810400     -16.6106975      91.2706100
  84   84     179.7801425     -22.6848330      18.5247859
  85   85      31.4956440       5.3470254      -8.0110890
  86   86     -17.4599325      20.8289200      44.0348250
  87   87      46.9955337      -4.0717383      26.8269677
  88   88      10.6383008      64.4403250      42.8125232
  89   89      35.9516197     101.4895900      35.4561537
  90   90     139.6158025      92.3634150     -26.2194000
  91   91     -58.7079325     -36.6393225      25.5928950
  92   92      -4.1096200      28.1989375      84.7527250
  93   93      18.1300200       4.4745406      54.4326510
  94   94      15.7001522      73.6139793      24.5220925
  95   95      39.0994212       3.2966414      44.6387290
  96   96     -33.1099995      47.3367585      -7.7841676
  97   97      11.6239286      66.2130723      25.8483035
  98   98      12.9584155      77.6445167     144.0199950